141 
   time=   0.000000 (fs)  Energy=  -188068.672956 (eV)
BOX       12.68800000      0.00000000      0.00000000      0.00000000     12.68800000      0.00000000      0.00000000      0.00000000      12.68800000
   W        0.00880000      0.01190000      0.00930000      0.00000000      0.00000000      0.00000000     -0.16848428     -0.17933984       0.08813969
   W        1.55100000      1.55340000      1.53890000      0.00000000      0.00000000      0.00000000      1.55644796      1.46064287       1.84320428
   W        3.19390000      0.02900000      0.00900000      0.00000000      0.00000000      0.00000000      2.10862616      0.00467230       0.09301297
   W        4.79620000      1.59860000      1.56240000      0.00000000      0.00000000      0.00000000      3.05262295      3.07081016       3.35313033
   W        6.38220000      0.04390000      0.01540000      0.00000000      0.00000000      0.00000000     -0.09301142      0.31905088       0.21039399
   W        7.98450000      1.61020000      1.57710000      0.00000000      0.00000000      0.00000000     -2.88866294      3.26467785       3.01781789
   W        9.55490000      0.03550000      0.01600000      0.00000000      0.00000000      0.00000000     -1.95148315      0.09539168       0.14554868
   W       11.14940000      1.59480000      1.56670000      0.00000000      0.00000000      0.00000000     -1.81298756      1.55212252       1.61165305
   W        0.02160000      3.20820000      0.00300000      0.00000000      0.00000000      0.00000000     -0.17211696      2.31964755      -0.13140162
   W        1.58400000      4.80290000      1.55150000      0.00000000      0.00000000      0.00000000      2.85506985      2.67992359       3.01682374
   W        3.17030000      3.18110000      0.00680000      0.00000000      0.00000000      0.00000000      3.26689299      3.24757086      -0.02354855
   W        4.76240000      4.78340000      1.52740000      0.00000000      0.00000000      0.00000000      5.34533761      4.72109329      10.02668429
   W        6.39420000      3.19690000      0.01760000      0.00000000      0.00000000      0.00000000      0.21073920      3.52561114       0.29520308
   W        7.98650000      4.79030000      1.54980000      0.00000000      0.00000000      0.00000000     -5.23908667      4.30070610       9.21150330
   W        9.57700000      3.20200000      0.00920000      0.00000000      0.00000000      0.00000000     -3.27099661      3.29132418      -0.08930150
   W       11.15670000      4.79640000      1.56470000      0.00000000      0.00000000      0.00000000     -2.83013630      2.36881648       2.35877499
   W        0.02650000      6.39430000     -0.00320000      0.00000000      0.00000000      0.00000000     -0.08494224     -0.09073933      -0.31073911
   W        1.58950000      8.00150000      1.55740000      0.00000000      0.00000000      0.00000000      2.91481430     -2.64913529       2.76523308
   W        3.18050000      6.40290000     -0.00220000      0.00000000      0.00000000      0.00000000      3.29195623     -0.06801653      -0.27428131
   W        4.77440000      8.00680000      1.54070000      0.00000000      0.00000000      0.00000000      4.31892591     -5.13566313       9.12893879
   W        6.38650000      6.39800000      0.01110000      0.00000000      0.00000000      0.00000000      0.01695187     -0.58574389       0.12597542
   W        7.97290000      7.98950000      1.54860000      0.00000000      0.00000000      0.00000000     -4.28024404     -4.71078572       8.87827093
   W        9.56550000      6.38930000     -0.00130000      0.00000000      0.00000000      0.00000000     -3.38565357     -0.35557526      -0.48697873
   W       11.13890000      7.97800000      1.56570000      0.00000000      0.00000000      0.00000000     -2.92285303     -2.39343804       2.84204519
   W        0.02130000      9.55400000      0.00110000      0.00000000      0.00000000      0.00000000     -0.07779229     -2.01882087      -0.06079821
   W        1.59070000     11.14980000      1.56960000      0.00000000      0.00000000      0.00000000      1.58647297     -1.67288161       1.80125118
   W        3.18210000      9.58610000      0.00400000      0.00000000      0.00000000      0.00000000      2.89888491     -3.02851821       0.07684698
   W        4.78610000     11.17220000      1.57220000      0.00000000      0.00000000      0.00000000      2.30837920     -2.61346427       2.87442621
   W        6.37570000      9.58620000      0.00840000      0.00000000      0.00000000      0.00000000     -0.11092505     -3.45805481       0.28592562
   W        7.97330000     11.16130000      1.57620000      0.00000000      0.00000000      0.00000000     -2.24477018     -2.68195632       2.89338122
   W        9.56440000      9.57570000      0.00740000      0.00000000      0.00000000      0.00000000     -2.54317255     -2.81910942       0.13741145
   W       11.13860000     11.14200000      1.58260000      0.00000000      0.00000000      0.00000000     -1.67636124     -1.70620643       1.71947756
   W        0.02440000      0.02140000      3.17350000      0.00000000      0.00000000      0.00000000      0.06721584     -0.13399070       2.25877436
   W        1.59210000      1.58330000      4.76060000      0.00000000      0.00000000      0.00000000      3.95621962      3.77612893       3.88409463
   W        3.18560000      0.03200000      3.15680000      0.00000000      0.00000000      0.00000000      3.33738338      0.13193641       3.58521144
   W        4.77850000      1.62440000      4.73020000      0.00000000      0.00000000      0.00000000      4.98486452     12.34061167       6.86631408
   W        6.38760000      0.05220000      3.16170000      0.00000000      0.00000000      0.00000000     -0.48412424      0.97213269       3.86473695
   W        8.03670000      1.57450000      4.72360000      0.00000000      0.00000000      0.00000000     -6.43902256     10.23534695       5.19954069
   W        9.57810000      0.02550000      3.15240000      0.00000000      0.00000000      0.00000000     -2.92263601     -0.16825821       2.88738688
   W       11.17210000      1.59300000      4.74880000      0.00000000      0.00000000      0.00000000     -2.59481910      2.60650682       2.52317476
   W        0.03110000      3.17960000      3.14050000      0.00000000      0.00000000      0.00000000      0.17613238      3.07045782       3.35386312
   W        1.60610000      4.76780000      4.70990000      0.00000000      0.00000000      0.00000000     12.34498371      4.67605596       6.96446302
   W        3.03740000      3.02690000      3.00830000      0.00000000      0.00000000      0.00000000      6.85684021      6.30462383       8.25505894
   W        4.42320000      4.50650000      4.21590000      0.00000000      0.00000000      0.00000000     16.53300059     16.28577119      24.57509705
   W        6.43740000      3.17140000      3.12440000      0.00000000      0.00000000      0.00000000     -1.10630503     12.70793527      14.08788713
   W        8.32140000      4.66030000      4.55640000      0.00000000      0.00000000      0.00000000    -21.83862671     15.29584752      18.78059653
   W        9.63900000      3.14670000      3.10260000      0.00000000      0.00000000      0.00000000     -7.35708332      6.52663393       6.44347172
   W       11.23610000      4.75980000      4.72080000      0.00000000      0.00000000      0.00000000     -8.08166097      4.55147609       4.59565992
   W        0.03410000      6.39660000      3.14470000      0.00000000      0.00000000      0.00000000      0.41461011     -0.09480936       3.71269266
   W        1.55420000      8.05670000      4.69730000      0.00000000      0.00000000      0.00000000      9.88257246     -5.93774863       5.61599636
   W        3.13510000      6.47390000      3.08090000      0.00000000      0.00000000      0.00000000     12.56373313     -1.18337883      13.98806108
   W        4.70720000      8.30090000      4.55040000      0.00000000      0.00000000      0.00000000     15.73309491    -21.38092527      18.49729620
   W        6.37910000      6.41330000      3.00530000      0.00000000      0.00000000      0.00000000     -1.03097201     -1.40461858      30.04250338
   W        8.02510000      8.17120000      4.56230000      0.00000000      0.00000000      0.00000000    -15.71059336    -18.87889304      18.51378216
   W        9.60350000      6.40160000      3.11580000      0.00000000      0.00000000      0.00000000    -12.12684020     -0.08925818      12.00131748
   W       11.16430000      7.99130000      4.72810000      0.00000000      0.00000000      0.00000000     -9.55360244     -4.37584835       5.34826490
   W        0.00890000      9.58790000      3.14550000      0.00000000      0.00000000      0.00000000     -0.34724533     -2.88716228       3.16457138
   W        1.59810000     11.16270000      4.75800000      0.00000000      0.00000000      0.00000000      2.78783785     -2.71084626       2.66487045
   W        3.14360000      9.64550000      3.10490000      0.00000000      0.00000000      0.00000000      6.50775607     -6.55031605       6.72985760
   W        4.77820000     11.22420000      4.74550000      0.00000000      0.00000000      0.00000000      3.90317588     -7.76459021       4.16003781
   W        6.38490000      9.64280000      3.10710000      0.00000000      0.00000000      0.00000000     -0.27372928    -12.22968174      12.03995538
   W        7.98390000     11.19050000      4.74430000      0.00000000      0.00000000      0.00000000     -3.99232181     -8.64395206       4.35728550
   W        9.57340000      9.59190000      3.13750000      0.00000000      0.00000000      0.00000000     -6.49708618     -6.93854811       7.33085408
   W       11.13660000     11.14110000      4.76050000      0.00000000      0.00000000      0.00000000     -2.86928242     -3.34117897       2.60535419
   W        0.03280000      0.02520000      6.34880000      0.00000000      0.00000000      0.00000000      0.26837521     -0.03995845      -0.03399191
   W        1.59140000      1.58670000      7.94200000      0.00000000      0.00000000      0.00000000      3.90224021      3.91992668      -3.85755637
   W        3.20020000      0.04920000      6.34890000      0.00000000      0.00000000      0.00000000      3.77095910      1.89382940      -0.26493006
   W        4.77070000      1.59890000      7.98380000      0.00000000      0.00000000      0.00000000      4.57825728     12.31269728      -7.11098518
   W        6.39100000      0.01170000      6.35330000      0.00000000      0.00000000      0.00000000     -1.01661327      1.74107277      -0.57001918
   W        8.05210000      1.53440000      7.99860000      0.00000000      0.00000000      0.00000000     -6.18393135     10.38340243      -5.54621002
   W        9.58730000      0.01460000      6.34710000      0.00000000      0.00000000      0.00000000     -3.07296860     -0.37991571      -0.28129164
   W       11.17390000      1.58820000      7.94310000      0.00000000      0.00000000      0.00000000     -2.40283367      2.90960867      -2.49192406
   W        0.05960000      3.19390000      6.34740000      0.00000000      0.00000000      0.00000000      2.03686738      3.77334152       0.36307760
   W        1.61990000      4.77270000      7.97510000      0.00000000      0.00000000      0.00000000     12.17923028      4.90140938      -6.70682345
   W        3.13430000      3.12680000      6.35260000      0.00000000      0.00000000      0.00000000     15.86077867     15.83486445       0.03619836
   W        4.52050000      4.43740000      8.48720000      0.00000000      0.00000000      0.00000000     16.36944892     16.12312656     -24.60010898
   W        6.57650000      2.79880000      6.41800000      0.00000000      0.00000000      0.00000000     -5.98342008     29.27858748      -0.19280743
   W        8.30210000      4.54030000      8.13510000      0.00000000      0.00000000      0.00000000    -19.62077720     17.66183760     -17.97112438
   W        9.66160000      3.13140000      6.34370000      0.00000000      0.00000000      0.00000000    -12.56437904     12.25826993       0.56161112
   W       11.22800000      4.76230000      7.95300000      0.00000000      0.00000000      0.00000000     -8.90290029      5.22090069      -4.11072811
   W        0.02990000      6.39440000      6.34500000      0.00000000      0.00000000      0.00000000      1.16516326     -0.17265973       0.64908782
   W        1.55810000      8.04570000      7.98600000      0.00000000      0.00000000      0.00000000      9.47314554     -6.01703329      -5.15193131
   W        2.78020000      6.58980000      6.30850000      0.00000000      0.00000000      0.00000000     28.19479159     -6.05841668       0.00802560
   W        4.67620000      8.32250000      8.14700000      0.00000000      0.00000000      0.00000000     13.81867270    -22.41434357     -18.39537848
   W        8.01970000      8.25640000      8.22270000      0.00000000      0.00000000      0.00000000    -12.52985894    -20.81109912     -19.77782301
   W        9.82460000      6.31290000      6.29490000      0.00000000      0.00000000      0.00000000    -28.30506527      3.55281000       3.69571233
   W       11.13680000      7.98940000      7.95480000      0.00000000      0.00000000      0.00000000    -10.06419226     -5.31325934      -4.97595600
   W        0.01440000      9.57910000      6.34820000      0.00000000      0.00000000      0.00000000     -0.53581363     -3.69767532       0.19324394
   W        1.59680000     11.16310000      7.94070000      0.00000000      0.00000000      0.00000000      2.61207945     -2.82175071      -2.64623144
   W        3.17070000      9.64610000      6.34390000      0.00000000      0.00000000      0.00000000     11.42827959    -12.39725659      -0.18484264
   W        4.77130000     11.22680000      7.95940000      0.00000000      0.00000000      0.00000000      3.61463005     -7.58154130      -4.62683058
   W        6.39590000      9.71710000      6.34000000      0.00000000      0.00000000      0.00000000     -0.42475825    -25.35889063      -0.77652039
   W        7.98380000     11.19930000      7.96260000      0.00000000      0.00000000      0.00000000     -3.75755891     -8.55480707      -4.73489932
   W        9.56000000      9.57110000      6.34650000      0.00000000      0.00000000      0.00000000    -11.40726333    -13.56343581      -0.20330641
   W       11.13830000     11.14110000      7.93640000      0.00000000      0.00000000      0.00000000     -2.69604730     -3.45796323      -2.73394544
   W        0.02770000      0.02130000      9.52510000      0.00000000      0.00000000      0.00000000      0.04824684     -0.03459268      -2.26075238
   W        1.55390000      1.55860000     11.15990000      0.00000000      0.00000000      0.00000000      1.51233717      1.61199386      -1.89383197
   W        3.17930000      0.03020000      9.55070000      0.00000000      0.00000000      0.00000000      3.06682586      0.22673262      -3.48872553
   W        4.79190000      1.59350000     11.14980000      0.00000000      0.00000000      0.00000000      2.73731484      3.07748419      -3.04998549
   W        6.38270000      0.04220000      9.55820000      0.00000000      0.00000000      0.00000000     -0.46418738      0.93818591      -3.55031994
   W        7.99780000      1.59540000     11.14680000      0.00000000      0.00000000      0.00000000     -2.68025457      3.27972075      -2.55324357
   W        9.59220000      0.01580000      9.56090000      0.00000000      0.00000000      0.00000000     -2.62955535     -0.01780056      -2.77894820
   W       11.15780000      1.59130000     11.14000000      0.00000000      0.00000000      0.00000000     -1.69418091      1.86227437      -1.74802442
   W        0.03140000      3.18510000      9.54590000      0.00000000      0.00000000      0.00000000      0.03719423      3.57593408      -3.51892944
   W        1.58470000      4.80310000     11.13500000      0.00000000      0.00000000      0.00000000      2.73249815      2.97673199      -3.38666316
   W        3.03400000      3.04710000      9.68960000      0.00000000      0.00000000      0.00000000      6.41319869      6.81347827      -8.31094617
   W        4.77030000      4.77690000     11.18060000      0.00000000      0.00000000      0.00000000      5.06669834      5.04941311      -9.85302229
   W        6.45800000      3.13010000      9.62700000      0.00000000      0.00000000      0.00000000     -0.86658489     13.15690678     -13.84792899
   W        7.98950000      4.78900000     11.14910000      0.00000000      0.00000000      0.00000000     -4.81443483      4.87714733      -9.77827067
   W        9.65110000      3.12550000      9.60670000      0.00000000      0.00000000      0.00000000     -6.99003210      7.91411426      -6.84825181
   W       11.15290000      4.79750000     11.12010000      0.00000000      0.00000000      0.00000000     -3.05226387      2.75381290      -3.24453107
   W        0.03010000      6.39260000      9.53100000      0.00000000      0.00000000      0.00000000     -0.00642753     -0.26882835      -4.01335128
   W        1.59400000      7.98860000     11.12320000      0.00000000      0.00000000      0.00000000      2.87954718     -2.93022064      -3.18791014
   W        3.15590000      6.43970000      9.57720000      0.00000000      0.00000000      0.00000000     12.18572324     -1.21105923     -14.00714834
   W        4.77380000      7.99290000     11.15680000      0.00000000      0.00000000      0.00000000      3.99778341     -5.49814684      -8.95432872
   W        6.38200000      6.40710000      9.70040000      0.00000000      0.00000000      0.00000000     -0.50495703     -2.06393720     -29.58139380
   W        7.97010000      7.98860000     11.16590000      0.00000000      0.00000000      0.00000000     -3.92111124     -5.42599577      -8.64290008
   W        9.58680000      6.39200000      9.54670000      0.00000000      0.00000000      0.00000000    -12.10535341     -0.74422506     -13.34395439
   W       11.13410000      7.97170000     11.11750000      0.00000000      0.00000000      0.00000000     -2.99121210     -2.93265854      -3.38297214
   W        0.00760000      9.57830000      9.54460000      0.00000000      0.00000000      0.00000000     -0.41996744     -3.30907547      -3.34308258
   W        1.58880000     11.15020000     11.13170000      0.00000000      0.00000000      0.00000000      1.48734730     -1.79105685      -1.69864582
   W        3.13890000      9.64220000      9.59470000      0.00000000      0.00000000      0.00000000      5.91718887     -6.93525211      -6.56289143
   W        4.77600000     11.17100000     11.14130000      0.00000000      0.00000000      0.00000000      2.11926934     -2.60510482      -2.51855555
   W        6.36120000      9.65180000      9.60270000      0.00000000      0.00000000      0.00000000     -0.12323326    -12.09660407     -11.62582837
   W        7.97160000     11.16370000     11.14240000      0.00000000      0.00000000      0.00000000     -2.10458911     -2.56172778      -2.42882095
   W        9.58490000      9.60960000      9.58350000      0.00000000      0.00000000      0.00000000     -5.84349900     -7.26311370      -7.24232762
   W       11.14680000     11.14500000     11.13180000      0.00000000      0.00000000      0.00000000     -1.53254972     -1.77642264      -1.58826601
  He        6.10750000      6.10240000      4.72580000      0.00000000      0.00000000      0.00000000     -0.08421522      0.58577170      -1.02420239
  He        5.55330000      7.25630000      5.75090000      0.00000000      0.00000000      0.00000000     -2.10857541     -0.38601299      -3.10218794
  He        6.03880000      4.56920000      7.22450000      0.00000000      0.00000000      0.00000000     -1.72060268      1.59711849      -3.40645524
  He        4.46080000      5.35360000      6.92080000      0.00000000      0.00000000      0.00000000      4.55821829      0.38241471       1.13015336
  He        5.88240000      5.87390000      6.35160000      0.00000000      0.00000000      0.00000000      0.16170055      0.16510777       0.09989780
  He        5.41180000      4.46350000      5.75020000      0.00000000      0.00000000      0.00000000     -0.07631241      4.67252156      -0.59622410
  He        4.51560000      5.99390000      5.48300000      0.00000000      0.00000000      0.00000000      1.83497476     -2.43052135       3.05394115
  He        6.58630000      7.23180000      6.93410000      0.00000000      0.00000000      0.00000000      0.72142377     -2.10976044      -0.00875813
  He        7.20450000      6.78280000      5.59840000      0.00000000      0.00000000      0.00000000      0.00518517      1.67661468      -0.52186977
  He        6.21270000      6.13370000      7.97790000      0.00000000      0.00000000      0.00000000      0.03705635     -0.20039226       1.21949618
  He        4.96650000      6.83960000      7.19300000      0.00000000      0.00000000      0.00000000      2.01809478      2.27025827      -0.57937656
  He        8.18270000      6.96470000      6.80400000      0.00000000      0.00000000      0.00000000     -0.15077566     -1.18108398      -0.65547370
  He        6.91240000      5.01030000      5.59140000      0.00000000      0.00000000      0.00000000      1.80809735      1.07387448      -0.19838693
  He        7.32970000      5.66430000      6.97260000      0.00000000      0.00000000      0.00000000     -0.79450119     -2.29646448       2.23633906
141 
   time=   0.500000 (fs)  Energy=  -188982.085039 (eV)
BOX       12.68800000      0.00000000      0.00000000      0.00000000     12.68800000      0.00000000      0.00000000      0.00000000      12.68800000
   W        0.00895826      0.01206846      0.00921721      0.00000000      0.00000000      0.00000000      0.29257300      0.40035608      -0.00858947
   W        1.54953796      1.55202796      1.53716860      0.00000000      0.00000000      0.00000000      0.78276553      0.77290150       0.86877314
   W        3.19191928      0.02899561      0.00891263      0.00000000      0.00000000      0.00000000      0.08748095      0.00986487      -0.05290444
   W        4.79333254      1.59571546      1.55925026      0.00000000      0.00000000      0.00000000     -0.23032081     -0.03493909      -0.10663822
   W        6.38228737      0.04360030      0.01520237      0.00000000      0.00000000      0.00000000     -0.21520309      0.11836719       0.01871572
   W        7.98721344      1.60713335      1.57426524      0.00000000      0.00000000      0.00000000     -0.09566580      0.17508139       0.18759144
   W        9.55673311      0.03541039      0.01586328      0.00000000      0.00000000      0.00000000     -0.20284456      0.16267104      -0.02387620
   W       11.15110302      1.59334203      1.56518611      0.00000000      0.00000000      0.00000000     -0.35758281      0.30404751       0.32988586
   W        0.02176168      3.20602106      0.00312343      0.00000000      0.00000000      0.00000000      0.05526184      0.08285895       0.02769311
   W        1.58131811      4.80038263      1.54866617      0.00000000      0.00000000      0.00000000     -0.12572402     -0.09647474      -0.20693049
   W        3.16723127      3.17804942      0.00682212      0.00000000      0.00000000      0.00000000      0.21562635      0.22631656      -0.01080049
   W        4.75737890      4.77896528      1.51798151      0.00000000      0.00000000      0.00000000     -0.00150667      0.07704217       0.23063702
   W        6.39400204      3.19358824      0.01732270      0.00000000      0.00000000      0.00000000      0.00411004      0.11127959       0.08568809
   W        7.99142130      4.78626016      1.54114724      0.00000000      0.00000000      0.00000000     -0.12668007      0.01525896      -0.48585289
   W        9.58007259      3.19890832      0.00928388      0.00000000      0.00000000      0.00000000     -0.03203127      0.05918189       0.03303447
   W       11.15935847      4.79417487      1.56248430      0.00000000      0.00000000      0.00000000     -0.01978593     -0.12449608       0.01138126
   W        0.02657979      6.39438524     -0.00290811      0.00000000      0.00000000      0.00000000      0.14079956     -0.16286546      -0.02270220
   W        1.58676199      8.00398845      1.55480250      0.00000000      0.00000000      0.00000000      0.34258666     -0.23517422       0.23945174
   W        3.17740773      6.40296389     -0.00194236      0.00000000      0.00000000      0.00000000      0.11706320      0.06461933      -0.05793810
   W        4.77034305      8.01162415      1.53212480      0.00000000      0.00000000      0.00000000     -0.01043460     -0.15904204      -0.39167210
   W        6.38648408      6.39855021      0.01098167      0.00000000      0.00000000      0.00000000      0.25112327      0.38449104       0.01184924
   W        7.97692062      7.99392504      1.54026026      0.00000000      0.00000000      0.00000000     -0.26655881     -0.15030326      -0.29825020
   W        9.56868029      6.38963401     -0.00084256      0.00000000      0.00000000      0.00000000     -0.10475982      0.10289092      -0.07399351
   W       11.14164556      7.98024826      1.56303035      0.00000000      0.00000000      0.00000000     -0.17089284     -0.20159047       0.00242348
   W        0.02137307      9.55589636      0.00115711      0.00000000      0.00000000      0.00000000      0.14497711     -0.10934718       0.04369096
   W        1.58920976     11.15137141      1.56790801      0.00000000      0.00000000      0.00000000      0.33209638     -0.38753746       0.34423984
   W        3.17937695      9.58894482      0.00392781      0.00000000      0.00000000      0.00000000     -0.00545024      0.00120247       0.03388121
   W        4.78393164     11.17465494      1.56949993      0.00000000      0.00000000      0.00000000      0.08070803     -0.11061797       0.16291139
   W        6.37580420      9.58944830      0.00813142      0.00000000      0.00000000      0.00000000      0.01917801     -0.09776109       0.00708990
   W        7.97540861     11.16381928      1.57348212      0.00000000      0.00000000      0.00000000     -0.23867512     -0.17792503       0.20396500
   W        9.56678891      9.57834811      0.00727092      0.00000000      0.00000000      0.00000000     -0.04976015     -0.01335804      -0.01501248
   W       11.14017468     11.14360271      1.58098482      0.00000000      0.00000000      0.00000000     -0.05135681     -0.14300392       0.20481392
   W        0.02433686      0.02152586      3.17137824      0.00000000      0.00000000      0.00000000      0.10195194      0.12568928       0.11913448
   W        1.58838375      1.57975292      4.75695150      0.00000000      0.00000000      0.00000000      0.22867914      0.12130314      -0.01614515
   W        3.18246505      0.03187607      3.15343226      0.00000000      0.00000000      0.00000000      0.11608722     -0.14676341       0.21320236
   W        4.77381751      1.61280794      4.72375018      0.00000000      0.00000000      0.00000000     -0.18024093     -0.75419905      -0.30686619
   W        6.38805476      0.05128683      3.15806969      0.00000000      0.00000000      0.00000000      0.05334485     -0.14283881       0.09974092
   W        8.04274845      1.56488550      4.71871585      0.00000000      0.00000000      0.00000000     -0.46435889     -0.00152897       0.97629467
   W        9.58084536      0.02565805      3.14968775      0.00000000      0.00000000      0.00000000     -0.26914082      0.08960455       0.19967348
   W       11.17453742      1.59055160      4.74642987      0.00000000      0.00000000      0.00000000     -0.09690906      0.16185231       0.08794380
   W        0.03093455      3.17671579      3.13734957      0.00000000      0.00000000      0.00000000     -0.27059490      0.22997094       0.30314472
   W        1.59450383      4.76340758      4.70335798      0.00000000      0.00000000      0.00000000     -0.50017621      0.00337757      -0.14129247
   W        3.03095908      3.02097780      3.00054567      0.00000000      0.00000000      0.00000000      1.87301606      1.88901070       1.36306037
   W        4.40766985      4.49120208      4.19281557      0.00000000      0.00000000      0.00000000     -5.68348936     -5.03354182      -8.70980769
   W        6.43843920      3.15946290      3.11116665      0.00000000      0.00000000      0.00000000     -0.29986894     -0.86407993      -1.23343154
   W        8.34191395      4.64593196      4.53875859      0.00000000      0.00000000      0.00000000      6.45848449     -2.92533997      -4.68236552
   W        9.64591082      3.14056926      3.09654737      0.00000000      0.00000000      0.00000000     -0.90194148      1.29641712       1.24676267
   W       11.24369145      4.75552461      4.71648310      0.00000000      0.00000000      0.00000000      0.13738050      0.32107203       0.46129331
   W        0.03371054      6.39668906      3.14121251      0.00000000      0.00000000      0.00000000     -0.14114665     -0.02552858       0.06667586
   W        1.54491688      8.06227758      4.69202466      0.00000000      0.00000000      0.00000000      0.24357870     -0.96731470       1.10700162
   W        3.12329835      6.47501160      3.06776042      0.00000000      0.00000000      0.00000000     -0.86771286     -0.42287269      -1.35104828
   W        4.69242124      8.32098401      4.53302470      0.00000000      0.00000000      0.00000000     -1.92126787      6.03842977      -4.42960861
   W        6.38006844      6.41461942      2.97707980      0.00000000      0.00000000      0.00000000      0.18698549      0.62830063      -4.59295312